 Q-Chem 5.3 (devel), Q-Chem, Inc., Pleasanton, CA (2020)
 Q-Chem 5.3.2 for Intel X86 EM64T Linux

User input:
--------------------------------------------------------------
$molecule
    0 1
    O        -0.0589468554    0.2678084446    0.0000000000
    H        -0.9158854857   -0.1614307441    0.0000000000
    H         0.5742936224   -0.4515745405    0.0000000000
$end

$rem
    jobtype     sp
    exchange    gen
    lrc_dft     true
    omega       571
    basis       def2-TZVPP
$end

$xc_functional
    C   PBE     1.0
    X   wPBE    0.8
    K           0.2
$end
--------------------------------------------------------------

             Standard Nuclear Orientation (Angstroms)
    I     Atom           X                Y                Z
 ----------------------------------------------------------------
    1      O       0.0000106350    -0.1170202440     0.0000000000
    2      H      -0.7591237599     0.4680481859     0.0000000000
    3      H       0.7590386795     0.4681137660    -0.0000000000
 ----------------------------------------------------------------

    7     -76.4206970946      2.26e-06  Convergence criterion met
 Total energy in the final basis set =      -76.4206970946

             Orbital Energies (a.u.) and Symmetries
 --------------------------------------------------------------

 Alpha MOs, Restricted
 -- Occupied --
-19.354  -1.249  -0.707  -0.565  -0.491
  1 A'    2 A'    3 A'    4 A'    1 A"

 Beta MOs, Restricted
 -- Occupied --
-19.354  -1.249  -0.707  -0.565  -0.491
  1 A'    2 A'    3 A'    4 A'    1 A"

          Ground-State Mulliken Net Atomic Charges

     Atom                 Charge (a.u.)
  ----------------------------------------
      1 O                    -0.432069
      2 H                     0.216044
      3 H                     0.216025
  ----------------------------------------
  Sum of atomic charges =     0.000000

                    Cartesian Multipole Moments
 -----------------------------------------------------------------
    Charge (ESU x 10^10)
                -0.0000
    Dipole Moment (Debye)
         X      -0.0002      Y       2.0461      Z      -0.0000
       Tot       2.0461
    Quadrupole Moments (Debye-Ang)
        XX      -4.1917     XY       0.0001     YY      -6.1653
        XZ      -0.0000     YZ      -0.0000     ZZ      -7.4147

 Total job time:  3.17s(wall), 31.89s(cpu)
        *  Thank you very much for using Q-Chem.  Have a nice day.  *
