 Q-Chem 5.3 (devel), Q-Chem, Inc., Pleasanton, CA (2020)
 Q-Chem 5.3.2 for Intel X86 EM64T Linux

User input:
--------------------------------------------------------------
$molecule
    1 2
    O        -0.0589468554    0.2678084446    0.0000000000
    H        -0.9158854857   -0.1614307441    0.0000000000
    H         0.5742936224   -0.4515745405    0.0000000000
$end

$rem
    jobtype     SP
    exchange    gen
    lrc_dft     TRUE
    omega       418
    basis       def2-TZVPP
$end

$xc_functional
    C   PBE     1.0
    X   wPBE    0.8
    K           0.2
$end
--------------------------------------------------------------

             Standard Nuclear Orientation (Angstroms)
    I     Atom           X                Y                Z
 ----------------------------------------------------------------
    1      O       0.0000106350    -0.1170202440     0.0000000000
    2      H      -0.7591237599     0.4680481859     0.0000000000
    3      H       0.7590386795     0.4681137660    -0.0000000000
 ----------------------------------------------------------------

    7     -75.9483279049      8.37e-06  Convergence criterion met
 Total energy in the final basis set =      -75.9483279049

             Orbital Energies (a.u.) and Symmetries
 --------------------------------------------------------------

 Alpha MOs, Unrestricted
 -- Occupied --
-19.858  -1.727  -1.163  -1.046  -1.029
  1 A'    2 A'    3 A'    1 A"    4 A'

 Beta MOs, Unrestricted
 -- Occupied --
-19.830  -1.643  -1.140  -0.997
  1 A'    2 A'    3 A'    4 A'

          Ground-State Mulliken Net Atomic Charges

     Atom                 Charge (a.u.)    Spin (a.u.)
  --------------------------------------------------------
      1 O                     0.304211       1.039704
      2 H                     0.347909      -0.019854
      3 H                     0.347880      -0.019850
  --------------------------------------------------------
  Sum of atomic charges =     1.000000

                    Cartesian Multipole Moments
 -----------------------------------------------------------------
    Charge (ESU x 10^10)
                 4.8032
    Dipole Moment (Debye)
         X      -0.0002      Y       2.1693      Z      -0.0000
       Tot       2.1693
    Quadrupole Moments (Debye-Ang)
        XX      -2.0642     XY       0.0000     YY      -4.2580
        XZ      -0.0000     YZ       0.0000     ZZ      -4.6864

 Total job time:  3.77s(wall), 39.85s(cpu)
        *  Thank you very much for using Q-Chem.  Have a nice day.  *
